<?xml version="1.0" encoding="UTF-8"?>

<!-- generated on 2026-01-12T20:41:27.616466+05:45 by Eclipse SUMO GUI 1.25.0
<sumoConfiguration xmlns:xsi="http://www.w3.org/2001/XMLSchema-instance" xsi:noNamespaceSchemaLocation="http://sumo.dlr.de/xsd/sumoConfiguration.xsd">

    <input>
        <net-file value="C:\Users\manis\.gemini\antigravity\scratch\traffic_cf_madrl\sumo_files\Kathmandu\osm.net.xml.gz"/>
        <route-files value="C:\Users\manis\.gemini\antigravity\scratch\traffic_cf_madrl\sumo_files\Kathmandu\osm.passenger.trips.xml"/>
        <additional-files value="C:\Users\manis\.gemini\antigravity\scratch\traffic_cf_madrl\sumo_files\Kathmandu\osm.poly.xml.gz,C:\Users\manis\.gemini\antigravity\scratch\traffic_cf_madrl\sumo_files\Kathmandu\output.add.xml"/>
    </input>

    <output>
        <tripinfo-output value="C:\Users\manis\.gemini\antigravity\scratch\traffic_cf_madrl\sumo_files\Kathmandu\tripinfos.xml"/>
        <statistic-output value="C:\Users\manis\.gemini\antigravity\scratch\traffic_cf_madrl\sumo_files\Kathmandu\stats.xml"/>
    </output>

    <processing>
        <ignore-route-errors value="true"/>
        <tls.actuated.jam-threshold value="30"/>
    </processing>

    <routing>
        <device.rerouting.adaptation-steps value="18"/>
        <device.rerouting.adaptation-interval value="10"/>
    </routing>

    <report>
        <verbose value="true"/>
        <duration-log.statistics value="true"/>
        <no-step-log value="true"/>
    </report>

    <gui_only>
        <gui-settings-file value="C:\Users\manis\.gemini\antigravity\scratch\traffic_cf_madrl\sumo_files\Kathmandu\osm.view.xml"/>
    </gui_only>

</sumoConfiguration>
-->

<meandata xmlns:xsi="http://www.w3.org/2001/XMLSchema-instance" xsi:noNamespaceSchemaLocation="http://sumo.dlr.de/xsd/meandata_file.xsd">
    <interval begin="0.00" end="509.00" id="wizard_example">
        <edge id="-1036195607" sampledSeconds="0.00" departed="0" arrived="0" entered="0" left="0" laneChangedFrom="0" laneChangedTo="0"/>
        <edge id="-1036195608" sampledSeconds="0.00" departed="0" arrived="0" entered="0" left="0" laneChangedFrom="0" laneChangedTo="0"/>
        <edge id="-1053917530#0" sampledSeconds="12.32" traveltime="3.30" overlapTraveltime="4.42" density="0.93" overlapDensity="1.27" laneDensity="0.93" occupancy="0.52" waitingTime="0.00" timeLoss="5.20" speed="5.44" speedRelative="0.39" departed="1" arrived="0" entered="2" left="3" laneChangedFrom="0" laneChangedTo="0" flow="18.23"/>
        <edge id="-1053917530#1" sampledSeconds="11.89" traveltime="2.34" overlapTraveltime="2.97" density="0.71" overlapDensity="0.90" laneDensity="0.71" occupancy="0.37" waitingTime="0.00" timeLoss="1.37" speed="10.37" speedRelative="0.75" departed="0" arrived="0" entered="4" left="4" laneChangedFrom="0" laneChangedTo="0" flow="26.60"/>
        <edge id="-1053917530#2" sampledSeconds="11.59" traveltime="2.38" overlapTraveltime="2.90" density="1.10" overlapDensity="1.34" laneDensity="1.10" occupancy="0.51" waitingTime="0.00" timeLoss="5.04" speed="7.59" speedRelative="0.55" departed="0" arrived="0" entered="4" left="4" laneChangedFrom="0" laneChangedTo="0" flow="30.12"/>
        <edge id="-1053917530#3" sampledSeconds="0.00" departed="0" arrived="0" entered="0" left="0" laneChangedFrom="0" laneChangedTo="0"/>
        <edge id="-1053917531#0" sampledSeconds="0.00" departed="0" arrived="0" entered="0" left="0" laneChangedFrom="0" laneChangedTo="0"/>
        <edge id="-1053917531#2" sampledSeconds="0.00" departed="0" arrived="0" entered="0" left="0" laneChangedFrom="0" laneChangedTo="0"/>
        <edge id="-1053917531#3" sampledSeconds="1.92" traveltime="1.57" overlapTraveltime="1.92" density="0.14" overlapDensity="0.17" laneDensity="0.14" occupancy="0.07" waitingTime="0.00" timeLoss="0.08" speed="13.89" speedRelative="1.00" departed="0" arrived="1" entered="1" left="0" laneChangedFrom="0" laneChangedTo="0" flow="7.08"/>
        <edge id="-1081061709" sampledSeconds="0.00" departed="0" arrived="0" entered="0" left="0" laneChangedFrom="0" laneChangedTo="0"/>
        <edge id="-1093502347#0" sampledSeconds="0.00" departed="0" arrived="0" entered="0" left="0" laneChangedFrom="0" laneChangedTo="0"/>
        <edge id="-1093502347#1" sampledSeconds="0.00" departed="0" arrived="0" entered="0" left="0" laneChangedFrom="0" laneChangedTo="0"/>
        <edge id="-1093502347#3" sampledSeconds="0.00" departed="0" arrived="0" entered="0" left="0" laneChangedFrom="0" laneChangedTo="0"/>
        <edge id="-1093502347#4" sampledSeconds="0.00" departed="0" arrived="0" entered="0" left="0" laneChangedFrom="0" laneChangedTo="0"/>
        <edge id="-1093502347#6" sampledSeconds="0.00" departed="0" arrived="0" entered="0" left="0" laneChangedFrom="0" laneChangedTo="0"/>
        <edge id="-1093502347#8" sampledSeconds="0.00" departed="0" arrived="0" entered="0" left="0" laneChangedFrom="0" laneChangedTo="0"/>
        <edge id="-1113521081" sampledSeconds="0.00" departed="0" arrived="0" entered="0" left="0" laneChangedFrom="0" laneChangedTo="0"/>
        <edge id="-1113521083" sampledSeconds="0.00" departed="0" arrived="0" entered="0" left="0" laneChangedFrom="0" laneChangedTo="0"/>
        <edge id="-1113521084" sampledSeconds="0.00" departed="0" arrived="0" entered="0" left="0" laneChangedFrom="0" laneChangedTo="0"/>
        <edge id="-111845385" sampledSeconds="10.05" traveltime="9.63" overlapTraveltime="10.51" density="0.16" overlapDensity="0.18" laneDensity="0.16" occupancy="0.09" waitingTime="0.00" timeLoss="1.70" speed="11.04" speedRelative="0.80" departed="1" arrived="0" entered="0" left="1" laneChangedFrom="0" laneChangedTo="0" flow="6.46"/>
        <edge id="-111845386#0" sampledSeconds="0.00" departed="0" arrived="0" entered="0" left="0" laneChangedFrom="0" laneChangedTo="0"/>
        <edge id="-111845386#2" sampledSeconds="8.27" traveltime="3.66" overlapTraveltime="4.13" density="0.21" overlapDensity="0.23" laneDensity="0.21" occupancy="0.11" waitingTime="0.00" timeLoss="1.40" speed="18.19" speedRelative="0.82" departed="0" arrived="1" entered="2" left="1" laneChangedFrom="0" laneChangedTo="0" flow="13.43"/>
        <edge id="-111845386#3" sampledSeconds="10.12" traveltime="4.82" overlapTraveltime="5.06" density="0.24" overlapDensity="0.25" laneDensity="0.24" occupancy="0.12" waitingTime="0.00" timeLoss="3.06" speed="16.68" speedRelative="0.75" departed="0" arrived="0" entered="2" left="2" laneChangedFrom="0" laneChangedTo="0" flow="14.33"/>
        <edge id="-111845386#4" sampledSeconds="19.31" traveltime="5.45" overlapTraveltime="6.11" density="0.35" overlapDensity="0.39" laneDensity="0.35" occupancy="0.18" waitingTime="0.00" timeLoss="3.15" speed="16.70" speedRelative="0.75" departed="0" arrived="0" entered="4" left="3" laneChangedFrom="0" laneChangedTo="0" flow="20.97"/>
        <edge id="-111845386#5" sampledSeconds="11.15" traveltime="2.55" overlapTraveltime="2.79" density="0.37" overlapDensity="0.41" laneDensity="0.37" occupancy="0.19" waitingTime="0.00" timeLoss="0.29" speed="20.99" speedRelative="0.94" departed="0" arrived="0" entered="4" left="4" laneChangedFrom="0" laneChangedTo="0" flow="28.27"/>
        <edge id="-111845386#6" sampledSeconds="21.38" traveltime="4.16" overlapTraveltime="4.40" density="0.45" overlapDensity="0.47" laneDensity="0.45" occupancy="0.22" waitingTime="0.00" timeLoss="0.64" speed="21.56" speedRelative="0.97" departed="0" arrived="0" entered="5" left="4" laneChangedFrom="0" laneChangedTo="0" flow="34.70"/>
        <edge id="-111845392#0" sampledSeconds="16.18" traveltime="4.67" overlapTraveltime="5.39" density="0.59" overlapDensity="0.68" laneDensity="0.59" occupancy="0.30" waitingTime="0.00" timeLoss="4.24" speed="9.63" speedRelative="0.69" departed="0" arrived="0" entered="3" left="3" laneChangedFrom="0" laneChangedTo="0" flow="20.32"/>
        <edge id="-111845392#1" sampledSeconds="20.25" traveltime="6.36" overlapTraveltime="6.75" density="0.46" overlapDensity="0.49" laneDensity="0.46" occupancy="0.23" waitingTime="0.00" timeLoss="1.44" speed="12.78" speedRelative="0.92" departed="0" arrived="0" entered="3" left="3" laneChangedFrom="0" laneChangedTo="0" flow="21.22"/>
        <edge id="-111845392#2" sampledSeconds="5.65" traveltime="1.59" overlapTraveltime="2.10" density="0.70" overlapDensity="0.97" laneDensity="0.70" occupancy="0.39" waitingTime="0.00" timeLoss="2.43" speed="7.82" speedRelative="0.56" departed="1" arrived="0" entered="2" left="3" laneChangedFrom="0" laneChangedTo="0" flow="19.59"/>
        <edge id="-111845392#3" sampledSeconds="8.50" traveltime="1.65" overlapTraveltime="2.12" density="0.65" overlapDensity="0.84" laneDensity="0.65" occupancy="0.34" waitingTime="0.00" timeLoss="1.03" speed="11.75" speedRelative="0.85" departed="0" arrived="1" entered="4" left="3" laneChangedFrom="0" laneChangedTo="0" flow="27.48"/>
        <edge id="-111845392#4" sampledSeconds="21.80" traveltime="5.07" overlapTraveltime="5.45" density="0.80" overlapDensity="0.86" laneDensity="0.80" occupancy="0.37" waitingTime="0.00" timeLoss="6.08" speed="10.10" speedRelative="0.73" departed="0" arrived="0" entered="4" left="4" laneChangedFrom="0" laneChangedTo="0" flow="28.97"/>
        <edge id="-111845392#5" sampledSeconds="0.00" departed="0" arrived="0" entered="0" left="0" laneChangedFrom="0" laneChangedTo="0"/>
        <edge id="-111845392#6" sampledSeconds="0.00" departed="0" arrived="0" entered="0" left="0" laneChangedFrom="0" laneChangedTo="0"/>
        <edge id="-111846940" sampledSeconds="0.00" departed="0" arrived="0" entered="0" left="0" laneChangedFrom="0" laneChangedTo="0"/>
        <edge id="-111846943#0" sampledSeconds="0.00" departed="0" arrived="0" entered="0" left="0" laneChangedFrom="0" laneChangedTo="0"/>
        <edge id="-111846943#1" sampledSeconds="0.00" departed="0" arrived="0" entered="0" left="0" laneChangedFrom="0" laneChangedTo="0"/>
        <edge id="-111846947#0" sampledSeconds="7.42" traveltime="6.47" overlapTraveltime="7.42" density="0.18" overlapDensity="0.21" laneDensity="0.18" occupancy="0.10" waitingTime="0.00" timeLoss="1.67" speed="9.97" speedRelative="0.72" departed="0" arrived="0" entered="1" left="1" laneChangedFrom="0" laneChangedTo="0" flow="6.61"/>
        <edge id="-111846947#1" sampledSeconds="0.72" traveltime="0.19" overlapTraveltime="0.72" density="0.19" overlapDensity="0.72" laneDensity="0.19" occupancy="0.10" waitingTime="0.00" timeLoss="0.11" speed="9.62" speedRelative="0.69" departed="0" arrived="0" entered="1" left="1" laneChangedFrom="0" laneChangedTo="0" flow="6.66"/>
        <edge id="-111846947#2" sampledSeconds="4.76" traveltime="4.30" overlapTraveltime="4.76" density="0.14" overlapDensity="0.15" laneDensity="0.14" occupancy="0.07" waitingTime="0.00" timeLoss="0.31" speed="14.15" speedRelative="1.02" departed="0" arrived="0" entered="1" left="1" laneChangedFrom="0" laneChangedTo="0" flow="6.91"/>
        <edge id="-111846947#3" sampledSeconds="6.29" traveltime="5.94" overlapTraveltime="6.29" density="0.14" overlapDensity="0.14" laneDensity="0.14" occupancy="0.07" waitingTime="0.00" timeLoss="0.30" speed="14.42" speedRelative="1.04" departed="0" arrived="0" entered="1" left="1" laneChangedFrom="0" laneChangedTo="0" flow="7.06"/>
        <edge id="-111846947#5" sampledSeconds="10.66" traveltime="10.10" overlapTraveltime="10.66" density="0.15" overlapDensity="0.16" laneDensity="0.15" occupancy="0.07" waitingTime="0.00" timeLoss="1.43" speed="13.12" speedRelative="0.94" departed="0" arrived="0" entered="1" left="1" laneChangedFrom="0" laneChangedTo="0" flow="6.95"/>
        <edge id="-111846947#6" sampledSeconds="10.96" traveltime="10.62" overlapTraveltime="10.96" density="0.15" overlapDensity="0.16" laneDensity="0.15" occupancy="0.07" waitingTime="0.00" timeLoss="1.49" speed="13.09" speedRelative="0.94" departed="0" arrived="0" entered="1" left="1" laneChangedFrom="0" laneChangedTo="0" flow="7.10"/>
        <edge id="-111846947#7" sampledSeconds="36.99" traveltime="5.71" overlapTraveltime="6.17" density="1.13" overlapDensity="1.22" laneDensity="1.13" occupancy="0.55" waitingTime="0.00" timeLoss="7.62" speed="10.51" speedRelative="0.76" departed="0" arrived="0" entered="6" left="6" laneChangedFrom="0" laneChangedTo="0" flow="42.56"/>
        <edge id="-111985604#0" sampledSeconds="6.37" traveltime="5.50" overlapTraveltime="6.37" density="0.23" overlapDensity="0.26" laneDensity="0.23" occupancy="0.12" waitingTime="0.00" timeLoss="1.43" speed="8.24" speedRelative="0.59" departed="0" arrived="0" entered="1" left="1" laneChangedFrom="0" laneChangedTo="0" flow="6.74"/>
        <edge id="-111985604#1" sampledSeconds="5.59" traveltime="2.40" overlapTraveltime="3.01" density="0.38" overlapDensity="0.45" laneDensity="0.38" occupancy="0.19" waitingTime="0.00" timeLoss="0.76" speed="9.86" speedRelative="0.71" departed="0" arrived="1" entered="2" left="1" laneChangedFrom="0" laneChangedTo="0" flow="13.57"/>
        <edge id="-111985604#2" sampledSeconds="22.69" traveltime="7.21" overlapTraveltime="7.62" density="0.55" overlapDensity="0.58" laneDensity="0.55" occupancy="0.26" waitingTime="0.00" timeLoss="4.81" speed="10.80" speedRelative="0.78" departed="0" arrived="1" entered="3" left="2" laneChangedFrom="0" laneChangedTo="0" flow="21.38"/>
        <edge id="-111985605#0" sampledSeconds="0.00" departed="0" arrived="0" entered="0" left="0" laneChangedFrom="0" laneChangedTo="0"/>
        <edge id="-111985605#1" sampledSeconds="0.00" departed="0" arrived="0" entered="0" left="0" laneChangedFrom="0" laneChangedTo="0"/>
        <edge id="-111985605#2" sampledSeconds="0.00" departed="0" arrived="0" entered="0" left="0" laneChangedFrom="0" laneChangedTo="0"/>
        <edge id="-111985605#3" sampledSeconds="0.00" departed="0" arrived="0" entered="0" left="0" laneChangedFrom="0" laneChangedTo="0"/>
        <edge id="-111985605#4" sampledSeconds="0.00" departed="0" arrived="0" entered="0" left="0" laneChangedFrom="0" laneChangedTo="0"/>
        <edge id="-111985605#5" sampledSeconds="0.00" departed="0" arrived="0" entered="0" left="0" laneChangedFrom="0" laneChangedTo="0"/>
        <edge id="-112117501" sampledSeconds="0.00" departed="0" arrived="0" entered="0" left="0" laneChangedFrom="0" laneChangedTo="0"/>
        <edge id="-112551786" sampledSeconds="0.00" departed="0" arrived="0" entered="0" left="0" laneChangedFrom="0" laneChangedTo="0"/>
        <edge id="-112551792#1" sampledSeconds="12.06" traveltime="11.67" overlapTraveltime="12.06" density="0.15" overlapDensity="0.15" laneDensity="0.15" occupancy="0.07" waitingTime="0.00" timeLoss="0.55" speed="13.14" speedRelative="0.95" departed="0" arrived="0" entered="1" left="1" laneChangedFrom="0" laneChangedTo="0" flow="7.06"/>
        <edge id="-112551792#2" sampledSeconds="5.36" traveltime="4.99" overlapTraveltime="5.36" density="0.15" overlapDensity="0.16" laneDensity="0.15" occupancy="0.07" waitingTime="0.00" timeLoss="0.20" speed="13.25" speedRelative="0.95" departed="0" arrived="0" entered="1" left="1" laneChangedFrom="0" laneChangedTo="0" flow="7.09"/>
        <edge id="-112551792#3" sampledSeconds="4.10" traveltime="3.72" overlapTraveltime="4.10" density="0.15" overlapDensity="0.16" laneDensity="0.15" occupancy="0.07" waitingTime="0.00" timeLoss="0.17" speed="13.20" speedRelative="0.95" departed="0" arrived="0" entered="1" left="1" laneChangedFrom="0" laneChangedTo="0" flow="7.08"/>
        <edge id="-112551792#4" sampledSeconds="6.17" traveltime="5.79" overlapTraveltime="6.17" density="0.17" overlapDensity="0.18" laneDensity="0.17" occupancy="0.08" waitingTime="0.00" timeLoss="0.94" speed="11.68" speedRelative="0.84" departed="0" arrived="0" entered="1" left="1" laneChangedFrom="0" laneChangedTo="0" flow="7.13"/>
        <edge id="-112551794#0" sampledSeconds="3.02" traveltime="0.03" overlapTraveltime="0.60" density="1.31" overlapDensity="29.68" laneDensity="1.31" occupancy="0.57" waitingTime="0.00" timeLoss="1.22" speed="8.60" speedRelative="0.62" departed="0" arrived="0" entered="5" left="5" laneChangedFrom="0" laneChangedTo="0" flow="40.45"/>
        <edge id="-112551794#1" sampledSeconds="2.57" traveltime="1.90" overlapTraveltime="2.57" density="0.17" overlapDensity="0.23" laneDensity="0.17" occupancy="0.09" waitingTime="0.00" timeLoss="0.47" speed="10.43" speedRelative="0.75" departed="0" arrived="0" entered="1" left="1" laneChangedFrom="0" laneChangedTo="0" flow="6.43"/>
        <edge id="-112551794#2" sampledSeconds="4.95" traveltime="2.74" overlapTraveltime="3.09" density="0.24" overlapDensity="0.25" laneDensity="0.24" occupancy="0.11" waitingTime="0.00" timeLoss="0.28" speed="13.99" speedRelative="1.01" departed="0" arrived="0" entered="2" left="1" laneChangedFrom="0" laneChangedTo="0" flow="11.92"/>
        <edge id="-112551794#3" sampledSeconds="6.34" traveltime="2.81" overlapTraveltime="3.17" density="0.27" overlapDensity="0.31" laneDensity="0.27" occupancy="0.14" waitingTime="0.00" timeLoss="0.18" speed="14.33" speedRelative="1.03" departed="0" arrived="0" entered="2" left="2" laneChangedFrom="0" laneChangedTo="0" flow="14.09"/>
        <edge id="-112551794#4" sampledSeconds="9.60" traveltime="4.44" overlapTraveltime="4.80" density="0.28" overlapDensity="0.30" laneDensity="0.28" occupancy="0.14" waitingTime="0.00" timeLoss="0.39" speed="14.15" speedRelative="1.02" departed="0" arrived="0" entered="2" left="2" laneChangedFrom="0" laneChangedTo="0" flow="14.12"/>
        <edge id="-112551794#5" sampledSeconds="11.14" traveltime="5.21" overlapTraveltime="5.57" density="0.30" overlapDensity="0.32" laneDensity="0.30" occupancy="0.15" waitingTime="0.00" timeLoss="1.15" speed="13.22" speedRelative="0.95" departed="0" arrived="0" entered="2" left="2" laneChangedFrom="0" laneChangedTo="0" flow="14.19"/>
        <edge id="-1126909409" sampledSeconds="0.00" departed="0" arrived="0" entered="0" left="0" laneChangedFrom="0" laneChangedTo="0"/>
        <edge id="-1126909410" sampledSeconds="40.52" traveltime="7.19" overlapTraveltime="8.10" density="0.94" overlapDensity="1.06" laneDensity="0.94" occupancy="0.48" waitingTime="0.00" timeLoss="8.52" speed="9.87" speedRelative="0.71" departed="0" arrived="0" entered="5" left="5" laneChangedFrom="0" laneChangedTo="0" flow="33.49"/>
        <edge id="-1171547832" sampledSeconds="1.09" traveltime="1.54" overlapTraveltime="2.43" density="0.25" overlapDensity="0.25" laneDensity="0.25" occupancy="0.07" waitingTime="0.00" timeLoss="0.65" speed="5.64" speedRelative="0.41" departed="0" arrived="0" entered="1" left="0" laneChangedFrom="0" laneChangedTo="0" flow="5.01"/>
        <edge id="-1171547833" sampledSeconds="3.08" traveltime="2.47" overlapTraveltime="3.08" density="0.24" overlapDensity="0.30" laneDensity="0.24" occupancy="0.12" waitingTime="0.00" timeLoss="1.09" speed="8.25" speedRelative="0.59" departed="0" arrived="0" entered="1" left="1" laneChangedFrom="0" laneChangedTo="0" flow="7.05"/>
        <edge id="-1173055000" sampledSeconds="0.00" departed="0" arrived="0" entered="0" left="0" laneChangedFrom="0" laneChangedTo="0"/>
        <edge id="-1173209391" sampledSeconds="0.00" departed="0" arrived="0" entered="0" left="0" laneChangedFrom="0" laneChangedTo="0"/>
        <edge id="-1173593041#0" sampledSeconds="0.00" departed="0" arrived="0" entered="0" left="0" laneChangedFrom="0" laneChangedTo="0"/>
        <edge id="-1173593041#1" sampledSeconds="0.00" departed="0" arrived="0" entered="0" left="0" laneChangedFrom="0" laneChangedTo="0"/>
        <edge id="-1173676398" sampledSeconds="0.00" departed="0" arrived="0" entered="0" left="0" laneChangedFrom="0" laneChangedTo="0"/>
        <edge id="-1173676406" sampledSeconds="0.00" departed="0" arrived="0" entered="0" left="0" laneChangedFrom="0" laneChangedTo="0"/>
        <edge id="-1174263529" sampledSeconds="0.00" departed="0" arrived="0" entered="0" left="0" laneChangedFrom="0" laneChangedTo="0"/>
        <edge id="-1174937721" sampledSeconds="0.00" departed="0" arrived="0" entered="0" left="0" laneChangedFrom="0" laneChangedTo="0"/>
        <edge id="-1180579343" sampledSeconds="0.00" departed="0" arrived="0" entered="0" left="0" laneChangedFrom="0" laneChangedTo="0"/>
        <edge id="-1181704417" sampledSeconds="0.00" departed="0" arrived="0" entered="0" left="0" laneChangedFrom="0" laneChangedTo="0"/>
        <edge id="-1190072489" sampledSeconds="0.00" departed="0" arrived="0" entered="0" left="0" laneChangedFrom="0" laneChangedTo="0"/>
        <edge id="-1196324771" sampledSeconds="0.00" departed="0" arrived="0" entered="0" left="0" laneChangedFrom="0" laneChangedTo="0"/>
        <edge id="-1196324772" sampledSeconds="0.00" departed="0" arrived="0" entered="0" left="0" laneChangedFrom="0" laneChangedTo="0"/>
        <edge id="-1196325240" sampledSeconds="0.00" departed="0" arrived="0" entered="0" left="0" laneChangedFrom="0" laneChangedTo="0"/>
        <edge id="-1198638170" sampledSeconds="26.11" traveltime="4.59" overlapTraveltime="5.22" density="1.24" overlapDensity="1.41" laneDensity="0.62" occupancy="0.31" waitingTime="0.00" timeLoss="2.02" speed="7.93" speedRelative="0.95" departed="0" arrived="0" entered="5" left="5" laneChangedFrom="0" laneChangedTo="0" flow="35.36"/>
        <edge id="-1198639191" sampledSeconds="34.92" traveltime="5.32" overlapTraveltime="5.93" density="1.53" overlapDensity="1.71" laneDensity="0.76" occupancy="0.39" waitingTime="0.00" timeLoss="3.99" speed="7.61" speedRelative="0.91" departed="1" arrived="0" entered="5" left="6" laneChangedFrom="1" laneChangedTo="1" flow="41.86"/>
        <edge id="-120353050" sampledSeconds="7.31" traveltime="6.10" overlapTraveltime="7.31" density="0.17" overlapDensity="0.20" laneDensity="0.08" occupancy="0.04" waitingTime="0.00" timeLoss="4.11" speed="10.44" speedRelative="0.38" departed="0" arrived="0" entered="1" left="1" laneChangedFrom="0" laneChangedTo="0" flow="6.31"/>
        <edge id="-120432783#0" sampledSeconds="0.00" departed="0" arrived="0" entered="0" left="0" laneChangedFrom="0" laneChangedTo="0"/>
        <edge id="-120432783#1" sampledSeconds="0.00" departed="0" arrived="0" entered="0" left="0" laneChangedFrom="0" laneChangedTo="0"/>
        <edge id="-120432783#2" sampledSeconds="0.00" departed="0" arrived="0" entered="0" left="0" laneChangedFrom="0" laneChangedTo="0"/>
        <edge id="-1221468282" sampledSeconds="0.00" departed="0" arrived="0" entered="0" left="0" laneChangedFrom="0" laneChangedTo="0"/>
        <edge id="-1221468283" sampledSeconds="0.00" departed="0" arrived="0" entered="0" left="0" laneChangedFrom="0" laneChangedTo="0"/>
        <edge id="-1224042244#0" sampledSeconds="0.00" departed="0" arrived="0" entered="0" left="0" laneChangedFrom="0" laneChangedTo="0"/>
        <edge id="-1224042244#1" sampledSeconds="0.00" departed="0" arrived="0" entered="0" left="0" laneChangedFrom="0" laneChangedTo="0"/>
        <edge id="-1224042245" sampledSeconds="0.00" departed="0" arrived="0" entered="0" left="0" laneChangedFrom="0" laneChangedTo="0"/>
        <edge id="-1225862742" sampledSeconds="0.00" departed="0" arrived="0" entered="0" left="0" laneChangedFrom="0" laneChangedTo="0"/>
        <edge id="-1225862743#0" sampledSeconds="0.00" departed="0" arrived="0" entered="0" left="0" laneChangedFrom="0" laneChangedTo="0"/>
        <edge id="-1225862743#2" sampledSeconds="0.00" departed="0" arrived="0" entered="0" left="0" laneChangedFrom="0" laneChangedTo="0"/>
        <edge id="-1225862744" sampledSeconds="0.00" departed="0" arrived="0" entered="0" left="0" laneChangedFrom="0" laneChangedTo="0"/>
        <edge id="-1225862745#0" sampledSeconds="0.00" departed="0" arrived="0" entered="0" left="0" laneChangedFrom="0" laneChangedTo="0"/>
        <edge id="-1225862745#1" sampledSeconds="0.00" departed="0" arrived="0" entered="0" left="0" laneChangedFrom="0" laneChangedTo="0"/>
        <edge id="-1236338879#0" sampledSeconds="0.00" departed="0" arrived="0" entered="0" left="0" laneChangedFrom="0" laneChangedTo="0"/>
        <edge id="-1236338879#1" sampledSeconds="0.00" departed="0" arrived="0" entered="0" left="0" laneChangedFrom="0" laneChangedTo="0"/>
        <edge id="-1236339198" sampledSeconds="0.00" departed="0" arrived="0" entered="0" left="0" laneChangedFrom="0" laneChangedTo="0"/>
        <edge id="-1242727606#0" sampledSeconds="0.00" departed="0" arrived="0" entered="0" left="0" laneChangedFrom="0" laneChangedTo="0"/>
        <edge id="-1242727606#1" sampledSeconds="0.00" departed="0" arrived="0" entered="0" left="0" laneChangedFrom="0" laneChangedTo="0"/>
        <edge id="-1242727608#0" sampledSeconds="0.00" departed="0" arrived="0" entered="0" left="0" laneChangedFrom="0" laneChangedTo="0"/>
        <edge id="-1242727608#1" sampledSeconds="0.00" departed="0" arrived="0" entered="0" left="0" laneChangedFrom="0" laneChangedTo="0"/>
        <edge id="-1242727609" sampledSeconds="0.00" departed="0" arrived="0" entered="0" left="0" laneChangedFrom="0" laneChangedTo="0"/>
        <edge id="-1242727610#0" sampledSeconds="0.00" departed="0" arrived="0" entered="0" left="0" laneChangedFrom="0" laneChangedTo="0"/>
        <edge id="-1242727610#1" sampledSeconds="0.00" departed="0" arrived="0" entered="0" left="0" laneChangedFrom="0" laneChangedTo="0"/>
        <edge id="-1242727610#2" sampledSeconds="0.00" departed="0" arrived="0" entered="0" left="0" laneChangedFrom="0" laneChangedTo="0"/>
        <edge id="-1242727611" sampledSeconds="0.00" departed="0" arrived="0" entered="0" left="0" laneChangedFrom="0" laneChangedTo="0"/>
        <edge id="-1242727612#0" sampledSeconds="0.00" departed="0" arrived="0" entered="0" left="0" laneChangedFrom="0" laneChangedTo="0"/>
        <edge id="-1242727612#1" sampledSeconds="0.00" departed="0" arrived="0" entered="0" left="0" laneChangedFrom="0" laneChangedTo="0"/>
        <edge id="-1242727612#2" sampledSeconds="0.00" departed="0" arrived="0" entered="0" left="0" laneChangedFrom="0" laneChangedTo="0"/>
        <edge id="-1287590612" sampledSeconds="0.00" departed="0" arrived="0" entered="0" left="0" laneChangedFrom="0" laneChangedTo="0"/>
        <edge id="-1300402441" sampledSeconds="0.00" departed="0" arrived="0" entered="0" left="0" laneChangedFrom="0" laneChangedTo="0"/>
        <edge id="-1300402442" sampledSeconds="5.16" traveltime="4.96" overlapTraveltime="5.67" density="0.17" overlapDensity="0.20" laneDensity="0.17" occupancy="0.09" waitingTime="0.00" timeLoss="0.71" speed="9.86" speedRelative="0.71" departed="1" arrived="0" entered="0" left="1" laneChangedFrom="0" laneChangedTo="0" flow="6.11"/>
        <edge id="-1300402443#0" sampledSeconds="0.00" departed="0" arrived="0" entered="0" left="0" laneChangedFrom="0" laneChangedTo="0"/>
        <edge id="-1300402443#1" sampledSeconds="0.00" departed="0" arrived="0" entered="0" left="0" laneChangedFrom="0" laneChangedTo="0"/>
        <edge id="-1300402444#1" sampledSeconds="0.00" departed="0" arrived="0" entered="0" left="0" laneChangedFrom="0" laneChangedTo="0"/>
        <edge id="-1300402444#2" sampledSeconds="0.00" departed="0" arrived="0" entered="0" left="0" laneChangedFrom="0" laneChangedTo="0"/>
        <edge id="-1300402445" sampledSeconds="0.00" departed="0" arrived="0" entered="0" left="0" laneChangedFrom="0" laneChangedTo="0"/>
        <edge id="-1300402446#0" sampledSeconds="0.00" departed="0" arrived="0" entered="0" left="0" laneChangedFrom="0" laneChangedTo="0"/>
        <edge id="-1300402446#1" sampledSeconds="0.00" departed="0" arrived="0" entered="0" left="0" laneChangedFrom="0" laneChangedTo="0"/>
        <edge id="-1300402447" sampledSeconds="0.00" departed="0" arrived="0" entered="0" left="0" laneChangedFrom="0" laneChangedTo="0"/>
        <edge id="-1300402448" sampledSeconds="0.00" departed="0" arrived="0" entered="0" left="0" laneChangedFrom="0" laneChangedTo="0"/>
        <edge id="-1300402449" sampledSeconds="0.00" departed="0" arrived="0" entered="0" left="0" laneChangedFrom="0" laneChangedTo="0"/>
        <edge id="-1300402450#0" sampledSeconds="0.00" departed="0" arrived="0" entered="0" left="0" laneChangedFrom="0" laneChangedTo="0"/>
        <edge id="-1300402450#1" sampledSeconds="0.00" departed="0" arrived="0" entered="0" left="0" laneChangedFrom="0" laneChangedTo="0"/>
        <edge id="-1300402451" sampledSeconds="0.00" departed="0" arrived="0" entered="0" left="0" laneChangedFrom="0" laneChangedTo="0"/>
        <edge id="-1305159249" sampledSeconds="2.53" traveltime="2.46" overlapTraveltime="3.36" density="0.21" overlapDensity="0.32" laneDensity="0.21" occupancy="0.13" waitingTime="0.00" timeLoss="0.56" speed="6.18" speedRelative="0.44" departed="1" arrived="0" entered="0" left="1" laneChangedFrom="0" laneChangedTo="0" flow="4.61"/>
        <edge id="-1305159250" sampledSeconds="3.90" traveltime="3.80" overlapTraveltime="4.39" density="0.16" overlapDensity="0.19" laneDensity="0.16" occupancy="0.09" waitingTime="0.00" timeLoss="0.94" speed="10.58" speedRelative="0.76" departed="1" arrived="0" entered="0" left="1" laneChangedFrom="0" laneChangedTo="0" flow="6.02"/>
        <edge id="-1305159251" sampledSeconds="1.86" traveltime="2.04" overlapTraveltime="2.64" density="0.19" overlapDensity="0.30" laneDensity="0.19" occupancy="0.12" waitingTime="0.00" timeLoss="1.01" speed="6.56" speedRelative="0.47" departed="1" arrived="0" entered="0" left="1" laneChangedFrom="0" laneChangedTo="0" flow="4.49"/>
        <edge id="-1334273585" sampledSeconds="0.00" departed="0" arrived="0" entered="0" left="0" laneChangedFrom="0" laneChangedTo="0"/>
        <edge id="-134726868" sampledSeconds="5.16" traveltime="4.53" overlapTraveltime="5.74" density="0.17" overlapDensity="0.22" laneDensity="0.17" occupancy="0.10" waitingTime="0.00" timeLoss="1.25" speed="8.74" speedRelative="0.63" departed="1" arrived="0" entered="0" left="1" laneChangedFrom="0" laneChangedTo="0" flow="5.50"/>