<?xml version="1.0" encoding="UTF-8"?>

<!-- generated on 2026-01-12T20:41:27.232528+05:45 by Eclipse SUMO GUI 1.25.0
<sumoConfiguration xmlns:xsi="http://www.w3.org/2001/XMLSchema-instance" xsi:noNamespaceSchemaLocation="http://sumo.dlr.de/xsd/sumoConfiguration.xsd">

    <input>
        <net-file value="C:\Users\manis\.gemini\antigravity\scratch\traffic_cf_madrl\sumo_files\Kathmandu\osm.net.xml.gz"/>
        <route-files value="C:\Users\manis\.gemini\antigravity\scratch\traffic_cf_madrl\sumo_files\Kathmandu\osm.passenger.trips.xml"/>
        <additional-files value="C:\Users\manis\.gemini\antigravity\scratch\traffic_cf_madrl\sumo_files\Kathmandu\osm.poly.xml.gz,C:\Users\manis\.gemini\antigravity\scratch\traffic_cf_madrl\sumo_files\Kathmandu\output.add.xml"/>
    </input>

    <output>
        <tripinfo-output value="C:\Users\manis\.gemini\antigravity\scratch\traffic_cf_madrl\sumo_files\Kathmandu\tripinfos.xml"/>
        <statistic-output value="C:\Users\manis\.gemini\antigravity\scratch\traffic_cf_madrl\sumo_files\Kathmandu\stats.xml"/>
    </output>

    <processing>
        <ignore-route-errors value="true"/>
        <tls.actuated.jam-threshold value="30"/>
    </processing>

    <routing>
        <device.rerouting.adaptation-steps value="18"/>
        <device.rerouting.adaptation-interval value="10"/>
    </routing>

    <report>
        <verbose value="true"/>
        <duration-log.statistics value="true"/>
        <no-step-log value="true"/>
    </report>

    <gui_only>
        <gui-settings-file value="C:\Users\manis\.gemini\antigravity\scratch\traffic_cf_madrl\sumo_files\Kathmandu\osm.view.xml"/>
    </gui_only>

</sumoConfiguration>
-->

<tripinfos xmlns:xsi="http://www.w3.org/2001/XMLSchema-instance" xsi:noNamespaceSchemaLocation="http://sumo.dlr.de/xsd/tripinfo_file.xsd">
    <tripinfo id="veh3" depart="20.00" departLane="432541153_0" departPos="5.10" departSpeed="15.04" departDelay="0.94" arrival="112.00" arrivalLane="-1448604737#0_0" arrivalPos="8.48" arrivalSpeed="13.84" duration="92.00" routeLength="1110.22" waitingTime="11.00" waitingCount="1" stopTime="0.00" timeLoss="28.56" rerouteNo="1" devices="tripinfo_veh3 routing_veh3" vType="veh_passenger" speedFactor="1.08" vaporized=""/>
    <tripinfo id="veh7" depart="45.00" departLane="300634296#3_0" departPos="5.10" departSpeed="0.00" departDelay="0.52" arrival="122.00" arrivalLane="232351915#2_1" arrivalPos="0.20" arrivalSpeed="24.11" duration="77.00" routeLength="1123.62" waitingTime="7.00" waitingCount="1" stopTime="0.00" timeLoss="24.41" rerouteNo="1" devices="tripinfo_veh7 routing_veh7" vType="veh_passenger" speedFactor="0.89" vaporized=""/>
    <tripinfo id="veh9" depart="58.00" departLane="61163734#1_0" departPos="5.10" departSpeed="0.00" departDelay="0.81" arrival="163.00" arrivalLane="-751465485#2_0" arrivalPos="77.78" arrivalSpeed="6.05" duration="105.00" routeLength="829.58" waitingTime="0.00" waitingCount="0" stopTime="0.00" timeLoss="13.65" rerouteNo="1" devices="tripinfo_veh9 routing_veh9" vType="veh_passenger" speedFactor="0.86" vaporized=""/>
    <tripinfo id="veh1" depart="7.00" departLane="-225008693_0" departPos="5.10" departSpeed="13.03" departDelay="0.65" arrival="166.00" arrivalLane="-28559206#1_0" arrivalPos="57.49" arrivalSpeed="20.14" duration="159.00" routeLength="1662.89" waitingTime="20.00" waitingCount="2" stopTime="0.00" timeLoss="57.61" rerouteNo="1" devices="tripinfo_veh1 routing_veh1" vType="veh_passenger" speedFactor="0.94" vaporized=""/>
    <tripinfo id="veh12" depart="77.00" departLane="111845386#2_0" departPos="5.10" departSpeed="0.00" departDelay="0.75" arrival="201.00" arrivalLane="751465485#3_0" arrivalPos="194.10" arrivalSpeed="8.22" duration="124.00" routeLength="1472.69" waitingTime="0.00" waitingCount="0" stopTime="0.00" timeLoss="13.21" rerouteNo="1" devices="tripinfo_veh12 routing_veh12" vType="veh_passenger" speedFactor="1.05" vaporized=""/>
    <tripinfo id="veh2" depart="13.00" departLane="185943172_0" departPos="5.10" departSpeed="0.00" departDelay="0.29" arrival="202.00" arrivalLane="231882050_0" arrivalPos="56.84" arrivalSpeed="10.61" duration="189.00" routeLength="2414.51" waitingTime="14.00" waitingCount="1" stopTime="0.00" timeLoss="61.61" rerouteNo="1" devices="tripinfo_veh2 routing_veh2" vType="veh_passenger" speedFactor="1.01" vaporized=""/>
    <tripinfo id="veh6" depart="39.00" departLane="324012356_0" departPos="5.10" departSpeed="14.53" departDelay="0.88" arrival="203.00" arrivalLane="-1053917531#3_0" arrivalPos="21.72" arrivalSpeed="13.98" duration="164.00" routeLength="1392.59" waitingTime="53.00" waitingCount="1" stopTime="0.00" timeLoss="77.94" rerouteNo="1" devices="tripinfo_veh6 routing_veh6" vType="veh_passenger" speedFactor="1.05" vaporized=""/>
    <tripinfo id="veh20" depart="128.00" departLane="-513528476_0" departPos="5.10" departSpeed="14.14" departDelay="0.92" arrival="204.00" arrivalLane="-232351915#0_1" arrivalPos="42.44" arrivalSpeed="11.94" duration="76.00" routeLength="948.40" waitingTime="0.00" waitingCount="0" stopTime="0.00" timeLoss="19.33" rerouteNo="1" devices="tripinfo_veh20 routing_veh20" vType="veh_passenger" speedFactor="1.02" vaporized=""/>
    <tripinfo id="veh17" depart="109.00" departLane="-1305159249_0" departPos="5.10" departSpeed="7.57" departDelay="0.98" arrival="218.00" arrivalLane="-324012356_0" arrivalPos="135.87" arrivalSpeed="12.04" duration="109.00" routeLength="1142.35" waitingTime="0.00" waitingCount="0" stopTime="0.00" timeLoss="21.51" rerouteNo="1" devices="tripinfo_veh17 routing_veh17" vType="veh_passenger" speedFactor="0.94" vaporized=""/>
    <tripinfo id="veh5" depart="32.00" departLane="172348764#0_0" departPos="5.10" departSpeed="0.00" departDelay="0.23" arrival="229.00" arrivalLane="172495781#1_0" arrivalPos="129.68" arrivalSpeed="10.51" duration="197.00" routeLength="2176.04" waitingTime="1.00" waitingCount="1" stopTime="0.00" timeLoss="37.02" rerouteNo="1" devices="tripinfo_veh5 routing_veh5" vType="veh_passenger" speedFactor="0.83" vaporized=""/>
    <tripinfo id="veh21" depart="134.00" departLane="-185946310_0" departPos="5.10" departSpeed="0.00" departDelay="0.57" arrival="234.00" arrivalLane="672176868_1" arrivalPos="22.77" arrivalSpeed="7.91" duration="100.00" routeLength="926.58" waitingTime="24.00" waitingCount="1" stopTime="0.00" timeLoss="53.05" rerouteNo="1" devices="tripinfo_veh21 routing_veh21" vType="veh_passenger" speedFactor="1.01" vaporized=""/>
    <tripinfo id="veh4" depart="26.00" departLane="-111845392#2_0" departPos="5.10" departSpeed="0.00" departDelay="0.58" arrival="253.00" arrivalLane="-185939504#5_1" arrivalPos="34.60" arrivalSpeed="8.05" duration="227.00" routeLength="1918.97" waitingTime="75.00" waitingCount="3" stopTime="0.00" timeLoss="120.47" rerouteNo="1" devices="tripinfo_veh4 routing_veh4" vType="veh_passenger" speedFactor="1.03" vaporized=""/>
    <tripinfo id="veh19" depart="121.00" departLane="172338730_0" departPos="5.10" departSpeed="16.09" departDelay="0.27" arrival="267.00" arrivalLane="1093502347#8_0" arrivalPos="64.93" arrivalSpeed="17.62" duration="146.00" routeLength="1949.24" waitingTime="0.00" waitingCount="0" stopTime="0.00" timeLoss="36.48" rerouteNo="1" devices="tripinfo_veh19 routing_veh19" vType="veh_passenger" speedFactor="1.16" vaporized=""/>
    <tripinfo id="veh25" depart="159.00" departLane="111846947#7_0" departPos="5.10" departSpeed="0.00" departDelay="0.15" arrival="272.00" arrivalLane="231885715#3_1" arrivalPos="70.09" arrivalSpeed="23.24" duration="113.00" routeLength="1195.86" waitingTime="0.00" waitingCount="0" stopTime="0.00" timeLoss="19.04" rerouteNo="1" devices="tripinfo_veh25 routing_veh25" vType="veh_passenger" speedFactor="0.87" vaporized=""/>
    <tripinfo id="veh10" depart="64.00" departLane="369713978_0" departPos="5.10" departSpeed="15.15" departDelay="0.46" arrival="274.00" arrivalLane="184538889#1_0" arrivalPos="49.27" arrivalSpeed="15.12" duration="210.00" routeLength="1934.27" waitingTime="58.00" waitingCount="2" stopTime="0.00" timeLoss="86.52" rerouteNo="1" devices="tripinfo_veh10 routing_veh10" vType="veh_passenger" speedFactor="1.09" vaporized=""/>
    <tripinfo id="veh24" depart="153.00" departLane="754991649_0" departPos="5.10" departSpeed="0.00" departDelay="0.50" arrival="286.00" arrivalLane="193705376#1_0" arrivalPos="32.68" arrivalSpeed="22.55" duration="133.00" routeLength="1642.45" waitingTime="6.00" waitingCount="1" stopTime="0.00" timeLoss="27.50" rerouteNo="1" devices="tripinfo_veh24 routing_veh24" vType="veh_passenger" speedFactor="0.83" vaporized=""/>
    <tripinfo id="veh0" depart="0.00" departLane="172338733_0" departPos="5.10" departSpeed="0.00" departDelay="0.00" arrival="296.00" arrivalLane="-111845386#2_0" arrivalPos="70.19" arrivalSpeed="23.38" duration="296.00" routeLength="2522.54" waitingTime="113.00" waitingCount="2" stopTime="0.00" timeLoss="170.09" rerouteNo="1" devices="tripinfo_veh0 routing_veh0" vType="veh_passenger" speedFactor="1.06" vaporized=""/>
    <tripinfo id="veh30" depart="191.00" departLane="422272357_0" departPos="5.10" departSpeed="9.82" departDelay="0.38" arrival="300.00" arrivalLane="-650461419#1_0" arrivalPos="87.75" arrivalSpeed="15.22" duration="109.00" routeLength="817.65" waitingTime="28.00" waitingCount="1" stopTime="0.00" timeLoss="50.18" rerouteNo="1" devices="tripinfo_veh30 routing_veh30" vType="veh_passenger" speedFactor="1.18" vaporized=""/>
    <tripinfo id="veh11" depart="70.00" departLane="324012356_0" departPos="5.10" departSpeed="14.26" departDelay="0.11" arrival="306.00" arrivalLane="300634296#0_0" arrivalPos="3.28" arrivalSpeed="4.84" duration="236.00" routeLength="1384.35" waitingTime="131.00" waitingCount="2" stopTime="0.00" timeLoss="164.95" rerouteNo="1" devices="tripinfo_veh11 routing_veh11" vType="veh_passenger" speedFactor="1.03" vaporized=""/>
    <tripinfo id="veh32" depart="204.00" departLane="513530027#1_0" departPos="5.10" departSpeed="0.00" departDelay="0.67" arrival="310.00" arrivalLane="136448419#1_0" arrivalPos="152.81" arrivalSpeed="26.66" duration="106.00" routeLength="851.25" waitingTime="33.00" waitingCount="1" stopTime="0.00" timeLoss="50.44" rerouteNo="1" devices="tripinfo_veh32 routing_veh32" vType="veh_passenger" speedFactor="1.01" vaporized=""/>
    <tripinfo id="veh14" depart="89.00" departLane="422263673_0" departPos="5.10" departSpeed="0.00" departDelay="0.04" arrival="312.00" arrivalLane="180214610#2_0" arrivalPos="16.58" arrivalSpeed="12.75" duration="223.00" routeLength="962.23" waitingTime="110.00" waitingCount="3" stopTime="0.00" timeLoss="140.74" rerouteNo="1" devices="tripinfo_veh14 routing_veh14" vType="veh_passenger" speedFactor="0.99" vaporized=""/>
    <tripinfo id="veh18" depart="115.00" departLane="-134726868_0" departPos="5.10" departSpeed="13.00" departDelay="0.63" arrival="312.00" arrivalLane="-516104230_0" arrivalPos="27.69" arrivalSpeed="12.18" duration="197.00" routeLength="1509.97" waitingTime="47.00" waitingCount="1" stopTime="0.00" timeLoss="77.97" rerouteNo="1" devices="tripinfo_veh18 routing_veh18" vType="veh_passenger" speedFactor="0.94" vaporized=""/>
    <tripinfo id="veh23" depart="147.00" departLane="-172348764#3_0" departPos="2.86" departSpeed="10.01" departDelay="0.86" arrival="321.00" arrivalLane="28559206#4_0" arrivalPos="95.93" arrivalSpeed="18.72" duration="174.00" routeLength="2252.63" waitingTime="14.00" waitingCount="1" stopTime="0.00" timeLoss="41.90" rerouteNo="1" devices="tripinfo_veh23 routing_veh23" vType="veh_passenger" speedFactor="0.89" vaporized=""/>
    <tripinfo id="veh8" depart="51.00" departLane="-351018906#7_0" departPos="5.10" departSpeed="0.00" departDelay="0.17" arrival="328.00" arrivalLane="-180210167_0" arrivalPos="30.59" arrivalSpeed="12.34" duration="277.00" routeLength="1731.87" waitingTime="104.00" waitingCount="4" stopTime="0.00" timeLoss="145.39" rerouteNo="1" devices="tripinfo_veh8 routing_veh8" vType="veh_passenger" speedFactor="0.94" vaporized=""/>
    <tripinfo id="veh27" depart="172.00" departLane="-184538887#1_0" departPos="5.10" departSpeed="0.00" departDelay="0.44" arrival="330.00" arrivalLane="-111845392#3_0" arrivalPos="19.97" arrivalSpeed="12.31" duration="158.00" routeLength="1649.33" waitingTime="0.00" waitingCount="0" stopTime="0.00" timeLoss="21.00" rerouteNo="1" devices="tripinfo_veh27 routing_veh27" vType="veh_passenger" speedFactor="0.95" vaporized=""/>
    <tripinfo id="veh40" depart="255.00" departLane="-1198639191_0" departPos="5.10" departSpeed="0.00" departDelay="0.84" arrival="342.00" arrivalLane="111845392#6_0" arrivalPos="29.79" arrivalSpeed="14.18" duration="87.00" routeLength="889.22" waitingTime="0.00" waitingCount="0" stopTime="0.00" timeLoss="13.58" rerouteNo="1" devices="tripinfo_veh40 routing_veh40" vType="veh_passenger" speedFactor="1.03" vaporized=""/>
    <tripinfo id="veh44" depart="280.00" departLane="-1448604738_0" departPos="5.10" departSpeed="0.00" departDelay="0.42" arrival="348.00" arrivalLane="1305159250_0" arrivalPos="40.94" arrivalSpeed="13.86" duration="68.00" routeLength="718.08" waitingTime="0.00" waitingCount="0" stopTime="0.00" timeLoss="18.50" rerouteNo="1" devices="tripinfo_veh44 routing_veh44" vType="veh_passenger" speedFactor="1.04" vaporized=""/>
    <tripinfo id="veh37" depart="236.00" departLane="-1305159251_0" departPos="5.10" departSpeed="5.85" departDelay="0.90" arrival="354.00" arrivalLane="-111985604#2_0" arrivalPos="77.26" arrivalSpeed="15.59" duration="118.00" routeLength="1518.52" waitingTime="1.00" waitingCount="1" stopTime="0.00" timeLoss="43.08" rerouteNo="1" devices="tripinfo_veh37 routing_veh37" vType="veh_passenger" speedFactor="1.18" vaporized=""/>
    <tripinfo id="veh26" depart="166.00" departLane="357187035_0" departPos="5.10" departSpeed="0.00" departDelay="0.80" arrival="358.00" arrivalLane="422040188#0_1" arrivalPos="55.75" arrivalSpeed="3.97" duration="192.00" routeLength="1708.21" waitingTime="0.00" waitingCount="0" stopTime="0.00" timeLoss="28.82" rerouteNo="1" devices="tripinfo_veh26 routing_veh26" vType="veh_passenger" speedFactor="0.92" vaporized=""/>
    <tripinfo id="veh42" depart="267.00" departLane="180204285#0_0" departPos="5.10" departSpeed="15.17" departDelay="0.13" arrival="364.00" arrivalLane="172348764#2_0" arrivalPos="4.40" arrivalSpeed="10.79" duration="97.00" routeLength="1148.40" waitingTime="0.00" waitingCount="0" stopTime="0.00" timeLoss="23.64" rerouteNo="1" devices="tripinfo_veh42 routing_veh42" vType="veh_passenger" speedFactor="1.09" vaporized=""/>
    <tripinfo id="veh38" depart="242.00" departLane="-1448604737#2_0" departPos="1.72" departSpeed="0.00" departDelay="0.55" arrival="368.00" arrivalLane="185939504#6_1" arrivalPos="24.61" arrivalSpeed="8.57" duration="126.00" routeLength="1199.80" waitingTime="26.00" waitingCount="1" stopTime="0.00" timeLoss="63.38" rerouteNo="1" devices="tripinfo_veh38 routing_veh38" vType="veh_passenger" speedFactor="1.10" vaporized=""/>
    <tripinfo id="veh33" depart="210.00" departLane="-185943157_0" departPos="5.10" departSpeed="0.00" departDelay="0.32" arrival="376.00" arrivalLane="-351018906#5_1" arrivalPos="91.76" arrivalSpeed="27.60" duration="166.00" routeLength="1891.27" waitingTime="25.00" waitingCount="1" stopTime="0.00" timeLoss="72.37" rerouteNo="1" devices="tripinfo_veh33 routing_veh33" vType="veh_passenger" speedFactor="1.17" vaporized=""/>
    <tripinfo id="veh16" depart="102.00" departLane="-184538884#3_0" departPos="5.10" departSpeed="0.00" departDelay="0.34" arrival="392.00" arrivalLane="-52736792#0_0" arrivalPos="101.58" arrivalSpeed="11.03" duration="290.00" routeLength="1260.65" waitingTime="177.00" waitingCount="3" stopTime="0.00" timeLoss="203.64" rerouteNo="1" devices="tripinfo_veh16 routing_veh16" vType="veh_passenger" speedFactor="0.88" vaporized=""/>
    <tripinfo id="veh39" depart="248.00" departLane="244107734_0" departPos="5.10" departSpeed="12.51" departDelay="0.19" arrival="399.00" arrivalLane="1300402442_0" arrivalPos="51.69" arrivalSpeed="11.94" duration="151.00" routeLength="1530.70" waitingTime="0.00" waitingCount="0" stopTime="0.00" timeLoss="34.96" rerouteNo="1" devices="tripinfo_veh39 routing_veh39" vType="veh_passenger" speedFactor="0.90" vaporized=""/>
    <tripinfo id="veh43" depart="274.00" departLane="-185946310_0" departPos="5.10" departSpeed="0.00" departDelay="0.78" arrival="403.00" arrivalLane="193705376#1_0" arrivalPos="32.68" arrivalSpeed="28.12" duration="129.00" routeLength="1243.84" waitingTime="35.00" waitingCount="2" stopTime="0.00" timeLoss="71.06" rerouteNo="1" devices="tripinfo_veh43 routing_veh43" vType="veh_passenger" speedFactor="1.04" vaporized=""/>
    <tripinfo id="veh49" depart="312.00" departLane="-232429764#1_0" departPos="5.10" departSpeed="23.62" departDelay="0.65" arrival="408.00" arrivalLane="193705376#1_0" arrivalPos="32.68" arrivalSpeed="23.02" duration="96.00" routeLength="1396.66" waitingTime="4.00" waitingCount="1" stopTime="0.00" timeLoss="25.21" rerouteNo="1" devices="tripinfo_veh49 routing_veh49" vType="veh_passenger" speedFactor="0.85" vaporized=""/>
    <tripinfo id="veh22" depart="140.00" departLane="172348643#1_0" departPos="5.10" departSpeed="0.00" departDelay="0.21" arrival="411.00" arrivalLane="184551692#1_0" arrivalPos="114.76" arrivalSpeed="13.03" duration="271.00" routeLength="2393.61" waitingTime="85.00" waitingCount="2" stopTime="0.00" timeLoss="127.07" rerouteNo="1" devices="tripinfo_veh22 routing_veh22" vType="veh_passenger" speedFactor="0.97" vaporized=""/>
    <tripinfo id="veh54" depart="344.00" departLane="-111845385_0" departPos="5.10" departSpeed="13.93" departDelay="0.88" arrival="414.00" arrivalLane="643296240_0" arrivalPos="18.89" arrivalSpeed="7.65" duration="70.00" routeLength="926.63" waitingTime="0.00" waitingCount="0" stopTime="0.00" timeLoss="16.30" rerouteNo="1" devices="tripinfo_veh54 routing_veh54" vType="veh_passenger" speedFactor="1.00" vaporized=""/>
    <tripinfo id="veh35" depart="223.00" departLane="-521751675_0" departPos="5.10" departSpeed="2.28" departDelay="0.61" arrival="428.00" arrivalLane="-244107734_0" arrivalPos="36.19" arrivalSpeed="13.80" duration="205.00" routeLength="2256.18" waitingTime="0.00" waitingCount="0" stopTime="0.00" timeLoss="26.17" rerouteNo="1" devices="tripinfo_veh35 routing_veh35" vType="veh_passenger" speedFactor="1.02" vaporized=""/>
    <tripinfo id="veh15" depart="96.00" departLane="182802916_0" departPos="5.10" departSpeed="12.87" departDelay="0.69" arrival="431.00" arrivalLane="-111985604#1_0" arrivalPos="24.65" arrivalSpeed="11.80" duration="335.00" routeLength="1908.49" waitingTime="179.00" waitingCount="6" stopTime="0.00" timeLoss="232.66" rerouteNo="1" devices="tripinfo_veh15 routing_veh15" vType="veh_passenger" speedFactor="0.93" vaporized=""/>
    <tripinfo id="veh13" depart="83.00" departLane="351018906#7_1" departPos="5.10" departSpeed="0.00" departDelay="0.40" arrival="443.00" arrivalLane="185939504#1_1" arrivalPos="97.94" arrivalSpeed="8.56" duration="360.00" routeLength="1908.52" waitingTime="176.00" waitingCount="5" stopTime="0.00" timeLoss="235.83" rerouteNo="1" devices="tripinfo_veh13 routing_veh13" vType="veh_passenger" speedFactor="1.12" vaporized=""/>
    <tripinfo id="veh29" depart="185.00" departLane="-180214610#3_0" departPos="5.10" departSpeed="12.94" departDelay="0.73" arrival="449.00" arrivalLane="694762473#2_0" arrivalPos="13.54" arrivalSpeed="12.25" duration="264.00" routeLength="1844.95" waitingTime="102.00" waitingCount="2" stopTime="0.00" timeLoss="129.78" rerouteNo="1" devices="tripinfo_veh29 routing_veh29" vType="veh_passenger" speedFactor="0.93" vaporized=""/>
    <tripinfo id="veh45" depart="286.00" departLane="-650461419#3_0" departPos="5.10" departSpeed="0.00" departDelay="0.07" arrival="451.00" arrivalLane="696492537#1_0" arrivalPos="7.00" arrivalSpeed="9.18" duration="165.00" routeLength="704.09" waitingTime="92.00" waitingCount="1" stopTime="0.00" timeLoss="115.43" rerouteNo="1" devices="tripinfo_veh45 routing_veh45" vType="veh_passenger" speedFactor="1.09" vaporized=""/>
    <tripinfo id="veh63" depart="401.00" departLane="-52993394#3_0" departPos="5.10" departSpeed="0.00" departDelay="0.70" arrival="478.00" arrivalLane="172348677_0" arrivalPos="0.20" arrivalSpeed="4.38" duration="77.00" routeLength="785.46" waitingTime="0.00" waitingCount="0" stopTime="0.00" timeLoss="20.67" rerouteNo="1" devices="tripinfo_veh63 routing_veh63" vType="veh_passenger" speedFactor="0.99" vaporized=""/>
    <tripinfo id="veh50" depart="318.00" departLane="1448604737#0_0" departPos="5.10" departSpeed="11.87" departDelay="0.30" arrival="485.00" arrivalLane="-180210167_0" arrivalPos="30.59" arrivalSpeed="10.68" duration="167.00" routeLength="1862.18" waitingTime="0.00" waitingCount="0" stopTime="0.00" timeLoss="28.22" rerouteNo="1" devices="tripinfo_veh50 routing_veh50" vType="veh_passenger" speedFactor="0.85" vaporized=""/>
    <tripinfo id="veh41" depart="261.00" departLane="690729663_0" departPos="5.10" departSpeed="13.29" departDelay="0.48" arrival="489.00" arrivalLane="516565941_0" arrivalPos="37.34" arrivalSpeed="12.61" duration="228.00" routeLength="1738.82" waitingTime="43.00" waitingCount="2" stopTime="0.00" timeLoss="83.14" rerouteNo="1" devices="tripinfo_veh41 routing_veh41" vType="veh_passenger" speedFactor="0.96" vaporized=""/>
    <tripinfo id="veh47" depart="299.00" departLane="-96906941#1_0" departPos="5.10" departSpeed="0.00" departDelay="0.36" arrival="489.00" arrivalLane="-184538884#2_0" arrivalPos="15.48" arrivalSpeed="11.54" duration="190.00" routeLength="2347.29" waitingTime="0.00" waitingCount="0" stopTime="0.00" timeLoss="29.57" rerouteNo="1" devices="tripinfo_veh47 routing_veh47" vType="veh_passenger" speedFactor="0.90" vaporized=""/>
    <tripinfo id="veh58" depart="369.00" departLane="-705044617#3_0" departPos="5.10" departSpeed="0.00" departDelay="0.47" arrival="500.00" arrivalLane="173044198#1_0" arrivalPos="108.24" arrivalSpeed="7.85" duration="131.00" routeLength="1209.96" waitingTime="0.00" waitingCount="0" stopTime="0.00" timeLoss="26.30" rerouteNo="1" devices="tripinfo_veh58 routing_veh58" vType="veh_passenger" speedFactor="1.02" vaporized=""/>
    <tripinfo id="veh46" depart="293.00" departLane="422272357_0" departPos="5.10" departSpeed="8.31" departDelay="0.71" arrival="501.00" arrivalLane="-432541152_0" arrivalPos="23.40" arrivalSpeed="11.76" duration="208.00" routeLength="1715.19" waitingTime="49.00" waitingCount="2" stopTime="0.00" timeLoss="86.58" rerouteNo="1" devices="tripinfo_veh46 routing_veh46" vType="veh_passenger" speedFactor="1.00" vaporized=""/>
    <tripinfo id="veh34" depart="217.00" departLane="112117501_0" departPos="5.10" departSpeed="13.82" departDelay="0.96" arrival="504.00" arrivalLane="-432541152_0" arrivalPos="23.40" arrivalSpeed="12.03" duration="287.00" routeLength="2217.71" waitingTime="84.00" waitingCount="2" stopTime="0.00" timeLoss="129.07" rerouteNo="1" devices="tripinfo_veh34 routing_veh34" vType="veh_passenger" speedFactor="0.99" vaporized=""/>
</tripinfos>
